% Model:              Untitled.mph
% Version:            COMSOL 6.1.0.282
% Date:               Mar 4 2025, 19:15
% Dimension:          2
% Nodes:              10601
% Expressions:        1
% Description:        Dependent variable u
% Length unit:        m
% X                       Y                        u (1)
0.9403899584507656        0.3090169943749474       0
0.9403899584507656        0.3071679425600793       5.4553159329400894E-5
0.9510565162951535        0.3090169943749474       0
0.9424270897275605        0.30274734898129174      0
0.9413716560846014        0.3042000287657177       5.345627213069058E-5
-0.0032961476453986964    0.9898555006556574       0
-0.0015384424769861892    0.9892843876262698       5.453510196813396E-5
0                         1                        0
0.0032961476453987797     0.9898555006556572       0
0.001520875651827926      0.9892786798187754       5.490774397004028E-5
0.5844891046470739        -0.7988724950306032      0
0.5827325585641142        -0.7994432314502976      5.451039268009422E-5
0.5877852522924731        -0.8090169943749475      0
0.5791558257248802        -0.8027473489812919      0
0.580208999135405         -0.8012977801399246      5.337624426951971E-5
-0.9424270897275617       0.3027473489812926       0
-0.9413539160219359       0.304224445867241        5.40792599189723E-5
-0.9510565162951535       0.3090169943749474       0
-0.9403899584507673       0.3090169943749474       0
-0.9403899584507673       0.30715632777072         5.478777850597225E-5
0.22356681118343394       0.31193210576197694      0
0.2228645628705061        0.31170393145346037      0.005063505926792176
0.22451398828979266       0.3090169943749474       0
0.227579117792701         0.30901699437494745      0
0.227579117792701         0.30828417862358853      0.0050263690877638545
0.3642184411090391        -0.12094910013692436     0
0.3632712640026804        -0.11803398874989482     0
0.3635329659680453        -0.12117182451151128     0.004943883547397728
0.36575100586049325       -0.11623235083171876     0
0.36532488387178635       -0.1156458442305474      0.004969830827141859
-0.22757911779270104      0.3090169943749474       0
-0.22757911779270104      0.30828763818342725      0.005000505336630948
-0.22451398828979266      0.3090169943749474       0
-0.22356681118343397      0.31193210576197694      0
-0.22287652223790352      0.31170781728748226      0.004980073345306337
-0.3657510058604933       -0.11623235083171872     0
-0.3632712640026804       -0.11803398874989482     0
-0.36532184479368274      -0.11564166129839053     0.005009616139937752
-0.3642184411090391       -0.12094910013692436     0
-0.3635189937731437       -0.12117636435283444     0.005042331019021261
-0.0024797418578128756    -0.3837676491682812      0
0                         -0.3819660112501051      0
-0.002904509483688071     -0.3831830066876251      0.0049575349275326926
0.0024797418578129202     -0.3837676491682812      0
0.002904001858454885      -0.3831837053738185      0.0049476662327274535
-0.5791558257248791       -0.8027473489812911      0
-0.5801961581997326       -0.8013154541716238      5.291877748207136E-5
-0.5877852522924731       -0.8090169943749475      0
-0.5844891046470736       -0.7988724950306022      0
-0.5828019582567546       -0.7994206821232451      5.300397439056735E-5
0.937729468528552         0.30494908038223756      1.1420185285269484E-4
0.9380869000009421        0.304476910430643        1.1084392320481581E-4
-2.5045768292037644E-4    0.9860714692757958       1.1414484002101409E-4
2.3013634260653682E-4     0.9860025114709472       1.1533593876827876E-4
0.9313749654873095        0.30234732009753185      2.5444329882899706E-4
0.9291416599441265        0.30463147104356464      2.52970969041781E-4
0.9309041026848528        0.29958609430148214      2.457090714372631E-4
-3.2607354955933236E-4    0.9778577140890781       2.8875675471529757E-4
-0.0026028191889893994    0.9778041157288766       2.528818603067801E-4
0.002637595383261596      0.9778149087463944       2.515803951695735E-4
0.9244416657899088        0.30038139212058734      4.620642998687494E-4
0.9186187688884105        0.30436542930791         4.3995107638308123E-4
0.9222015927911055        0.2935858470931847       4.2692612697339946E-4
-1.356373570103676E-4     0.9701390116441386       5.261486200131067E-4
-0.005598054732810302     0.9677116284949604       4.400990217776423E-4
0.00567171381186558       0.9677389242063122       4.344185081075489E-4
0.9142124705597595        0.30036774215922         7.836296386722643E-4
0.9071824574485308        0.30417334972949794      6.547194303836935E-4
0.9130756363738142        0.2940302480081957       9.448056796519184E-4
0.9127986995892108        0.28704606962943074      6.399376947918728E-4
-0.0030727115595932655    0.9612692921473283       8.325476232916261E-4
-0.008955806420614745     0.9567770735377349       6.542351245533884E-4
0.002490260052668418      0.9586337550374221       9.752582672619396E-4
0.009012534406012438      0.9567991334678769       6.474113908618185E-4
0.9024500611726103        0.29677695704631696      0.0014122895187626606
0.8952676277381959        0.30402172323120386      8.876973164175363E-4
0.9027290569825531        0.28778695567143925      0.0014737104944614764
0.9030351110237664        0.28021013733527655      8.762156793501836E-4
-0.0033384243796763568    0.9493487320975762       0.0014519347392458056
-0.012509756064390167     0.9454035338457688       8.844293282275036E-4
0.005319610541501325      0.9472460721007754       0.001484382691692946
0.012517565333194376      0.9454114148245174       8.828287310638763E-4
0.8891453169230612        0.2979212304332469       0.0018802220425169888
0.883300645282507         0.30390500595642195      0.0011278017277304721
0.8922859054961924        0.28919441343767         0.002267746100395674
0.8929832893345568        0.28116959766250454      0.001997737961431972
0.8932476740445376        0.27332081749566245      0.0011254266286427781
-0.008061663383076756     0.9376139031543927       0.00193396130170734
-0.016107955590973114     0.9339901754782649       0.0011212955360975756
0.0011633864470553524     0.9378489624744143       0.002272480085836764
0.009367651987625968      0.9358003514849758       0.0019422289018623323
0.01605619381361434       0.933979306488939        0.0011314511451654856
0.8776448223331711        0.29772765460799006      0.002374054849964894
0.8713239224378934        0.3038164091349052       0.0013715091650970642
0.8828730079903571        0.2913750966718469       0.0028142130855010683
0.8828652549551125        0.2830054931478738       0.003061353263207067
0.8833528600534509        0.27460689582609527      0.0025435293274738533
0.8834714389677748        0.266399740616953        0.0013825321871018365
-0.012426961571448297     0.9290722155663226       0.00210620777988671
-0.019727707450319987     0.9225737575701815       0.0013627787032030618
-0.005150269139027957     0.93001979946401         0.0027425449503988854
0.003868122630104415      0.9275838294016565       0.0030120355110398317
0.012549410628356947      0.9249215812745417       0.0024469531983245638
0.01962314262554377       0.9225449599334653       0.0013884209791889801
0.8667868686236697        0.29889551694963773      0.00258722199364564
0.8593481915378686        0.303743761071217        0.0016184767327612822
0.8724237402442481        0.2890266917324537       0.0037134938856826704
0.8742553079711273        0.2769634875890332       0.0038071396871565823
0.8732941950475952        0.2667822384445444       0.0030132533431047608
0.8737125456281658        0.25945527430794285      0.0016442043277935224
0.5798044689651211        -0.7976036935539135      1.1407497617206737E-4
0.5794645470646174        -0.7980992111142621      1.1059671572368897E-4
-0.9379727749706052       0.30447606696789176      1.1272796716249708E-4
-0.9376920591264691       0.30492352784564714      1.1495251440458713E-4
-0.01567459960358784      0.9175318042786144       0.002641256465973588
-0.023359035888541924     0.9111618963766229       0.0016082276286421462
-0.005981554500558822     0.9199819723109462       0.0035800067591331736
0.007118245326205376      0.916747977463932        0.0038086267901360576
0.01624219067207263       0.912834404647549        0.0030105948611565303
0.023217899779571477      0.9111195968206492       0.001649432457006476
0.8546685582779953        0.2982173886258437       0.0032001216016490463
0.8473731837194175        0.30367611537286554      0.0018702422325361158
0.8594809491936748        0.2909377937429475       0.004382401421411729
0.8649955221696369        0.2807858515189606       0.004843465450120725
0.8647311088262732        0.2708542092076141       0.004688271569189953
0.8634936762855455        0.2594105663082873       0.003477539085857972
0.8639667744058563        0.2524936503694849       0.0019092051099274423
0.575249654460148         -0.7920295785410607      2.6289694310544046E-4
0.5769724586457152        -0.7895214452329815      2.4787408155370344E-4
0.5726347459898156        -0.7926601112391686      2.502046615678303E-4
-0.930454639778519        0.30163823420074964      2.8000304888018904E-4
-0.9308223117103908       0.2996370436947886       2.495582258652347E-4
-0.9291521783125116       0.3046980480364462       2.5040329055536287E-4
-0.019403922633940557     0.9050807024473077       0.00321427418443051
-0.026995125276386853     0.8997522682971429       0.0018584214183422394
-0.010165688971138155     0.9070034101524342       0.004528738562344357
2.705249737065764E-4      0.9091699577689807       0.004870997646361812
0.009693407480641163      0.9056951517251728       0.004725999475249138
0.01982797495309751       0.9014618610736143       0.0035348640308906633
0.026835524317471368      0.8997021965526135       0.0019124133932906576
0.8418123525123329        0.29804525620379646      0.0037553009032024673
0.8353983983481992        0.30360860786097243      0.0021280031847401033
0.8471202128227723        0.2899496848688089       0.0053855573387068326
0.8535470091556234        0.27751973605740127      0.006201173345650744
0.8552705093454623        0.2639460559855351       0.0055303331891969005
0.8535366728964319        0.2526470335689119       0.004085423352179727
0.8542296539512458        0.24552085048412783      0.002177552910292934
0.5698504310507474        -0.7846731076497637      5.393435581975856E-4
0.573506815231887         -0.7795635720328047      4.271994684456763E-4
0.5642780181316093        -0.7862058643046314      4.387374758773162E-4
-0.9209555345656453       0.29893892103302144      5.941943247555515E-4
-0.9221387249188242       0.2936508281640664       4.3363053700451405E-4
-0.9186253611865282       0.3044759063760747       4.3190178112223444E-4
-0.02337839749137179      0.8927421030674546       0.0037371768521223428
-0.030629153976308        0.8883423284814375       0.0021154115152479157
-0.013971258221077792     0.8953061729069054       0.005381656477007839
-4.5335136243467895E-4    0.8976080253651499       0.006190717818145884
0.013186294720305808      0.8947852214676902       0.005565570828513527
0.02361742990050563       0.8901917181774258       0.004001550293079602
0.03046656948851133       0.8882898770661123       0.002177914490968803
0.8293695745411226        0.29736204126696525      0.0044778936833035155
0.8234234128602531        0.3035426039654604       0.0023912471493952405
0.8348699671039413        0.28942228049640467      0.006357293173644339
0.8397927705415807        0.2801103690612935       0.007513376972182726
0.8440244021321798        0.26820173803818903      0.007547802869245627
0.845785182868702         0.25633254543610834      0.006275913577025955
0.8438836532905378        0.24532249062936365      0.004518418879217989
0.8444989348475335        0.2385394155981695       0.0024488773934110207
0.5657450454390032        -0.7742822676080218      9.574530193848164E-4
0.5697685618305859        -0.7687442939815827      6.374627152331758E-4
0.5618538652754312        -0.7791194735865993      8.527367767138966E-4
0.5551407565493028        -0.7793107697809474      6.548005025422706E-4
-0.9129854315642335       0.29311856936379954      9.35017022753315E-4
-0.9127602297822109       0.28708997167268013      6.465371065827506E-4
-0.9102089979827217       0.2982719065084157       0.0010172011659729963
-0.9071862095123463       0.3042684853838358       6.4405388755816E-4
-0.02700563406419861      0.8811525107349256       0.004263721045877573
-0.03426064561732416      0.8769313823081194       0.002379801908588392
-0.018144285815710322     0.8838365105457255       0.006129718038611193
-0.006927921114175038     0.8853963435013648       0.007490527852172608
0.00581971664708132       0.8856892545578583       0.007529914500440151
0.017483027185569756      0.8835537843209547       0.0063004595045273995
0.027364358168887062      0.8792536453585972       0.004423604494881799
0.03410399384323198       0.8768800424534813       0.0024472144799941456
0.8179837636242153        0.2976581803016345       0.004852859048470403
0.8114481069248569        0.30348278484653074      0.002657729430961825
0.8231536864407104        0.2892658931716546       0.00723647669539135
0.8284293424348479        0.2800677775233561       0.008717226091129874
0.8341812861772574        0.27168488360915327      0.008892821336444121
0.8347228471093674        0.26135573787714145      0.00879557314424167
0.8362682402321449        0.2491783273419588       0.00705865938249485
0.8350307543116325        0.23873935839364724      0.004933860928769664
0.8347756383732916        0.23154763608300158      0.0027209672091125527
0.5610486966464969        -0.7636418414899193      0.0014801022530592548
0.5659075348936496        -0.7574696689411066      8.696407305521814E-4
0.555259681656987         -0.7700383552468334      0.0014495831443265689
0.5455903387027785        -0.7721821205596131      8.881619476707504E-4
-0.9034230201788634       0.2898868779815137       0.0014805789949915364
-0.9030203829852376       0.28022230207303306      8.791379739209028E-4
-0.8983368577906277       0.2985561736387762       0.0014564117053511188
-0.895272312815445        0.30407555839480954      8.793765933347022E-4
-0.03027413512313461      0.8694951789510598       0.00493510459912136
-0.03789497106241821      0.8655208239711716       0.00264950796266944
-0.022099845100375198     0.8726778291764317       0.006846270237787249
-0.010724991599614962     0.874520614656137        0.008660680425119026
-6.808300804936009E-4     0.8773566890783111       0.00888536358633004
0.009666881362391647      0.8743577177258409       0.008805686132401977
0.021523035990176794      0.8722278593893863       0.007055067571364446
0.031315923501883926      0.867897777328967        0.004824077702811074
0.037747246432484685      0.8654721024983618       0.0027198242294872595
0.8093144174033589        0.2984308673565345       0.004898921436159698
0.7994726686028639        0.30343239184464676      0.0029251064418351043
0.8110990745766712        0.2907091666597112       0.007645709095990285
0.8171703963634638        0.28037591278185586      0.009845162657654822
0.823380650559694         0.26809747251567706      0.010623989225915093
0.8250541486184505        0.2542770295796858       0.010091029066269469
0.8267311676196807        0.24191909269276018      0.007807128607519296
0.8255862555814428        0.23144482095161253      0.005280063810090962
0.8250601694042509        0.22454507556420195      0.0029919546878719484
0.7967295787637094        0.29841165609473475      0.0053950563199877885
0.7874973633337428        0.30339062868747907      0.003192657938326818
0.5574024191199219        -0.7526355099631812      0.00196835155912805
0.5620611385041344        -0.7461360173103425      0.0011124582477626647
0.5522089369388342        -0.7586809531987905      0.0022386341378802604
0.5438715708144709        -0.7632542686430606      0.0019142491585652382
0.5359842252669189        -0.7650445064593049      0.0011306233179565113
-0.89390060732778         0.2814127907164814       0.0019218457559253405
-0.8932625214620643       0.27329183950271707      0.001119235745092176
-0.8920930457407938       0.2892392154919386       0.0022809133073583986
-0.8870020847065232       0.2981042667565402       0.001944201964607496
-0.8833060113721902       0.30390144662412993      0.0011283961972243927
-0.03428080727775276      0.8590205123566458       0.0051697339698332035
-0.04153813298772346      0.8541126170534673       0.0029211054613215307
-0.025922499768907172     0.861507474499102        0.0075763383890179005
-0.014309006764642933     0.8640412298568957       0.009780961566119838
-7.732164685064204E-4     0.8658954428921892       0.01062746440697493
0.013361498029029629      0.8630667434114178       0.010085357127449983
0.025462840932669102      0.8609422473918703       0.0078015331293629425
0.03498039485284415       0.8566567724178398       0.005296218629624005
0.04139857080184488       0.8540666228748948       0.002993884830975874
0.7993240683791092        0.29079271875465557      0.008403181361687889
0.8038294321710637        0.2817730498356124       0.010883432060019503
0.8117500591487955        0.27190309860343137      0.011918436280221404
0.8134856987903766        0.25915509437441825      0.012513892898604195
0.8155470063192971        0.24689695269275022      0.011309564900797998
0.8171418949050576        0.2347140788791154       0.008560851500523665
0.8159510761396787        0.22470978965259675      0.005853379787664012
0.8153524012207616        0.2175321926551864       0.003260420204478159
0.7881624005239136        0.29027162041071564      0.009361024959878434
0.7850019571368081        0.29746158398120554      0.00632014291730863
0.7755222994934879        0.30335420887977893      0.0034612535825836155
0.5542515842918814        -0.7419703498412512      0.0023853081237473982
0.5582431313942269        -0.734783138603569       0.0013610121728772752
0.5479427941538025        -0.7481406710967442      0.0030469155706991033
0.5429510654282501        -0.7545781868454534      0.002823121667107133
0.5347025742001777        -0.7560687405163296      0.0024543270022385297
0.5263596394099312        -0.7579159742760834      0.0013800118795030383
-0.8845416906590883       0.2751439251200429       0.002448450193997278
-0.8835172084094775       0.2663284689924767       0.0013625271038335011
-0.8852183266089793       0.28344232651319873      0.002847075415554702
-0.8803873278090752       0.2914571981005347       0.0029669944011551717
-0.8757897952282974       0.2978231599092259       0.0024348153972792897
-0.8713290634610115       0.303756132671961        0.001385721353809479
-0.038089827827866046     0.8473882059461757       0.005647853500401534
-0.04519407945323262      0.8427083557007321       0.0031911967506085435
-0.029525679101944032     0.85021464852647         0.00838601212696134
-0.017718460488692675     0.8527198018799879       0.011070145330729884
-0.00770353304356487      0.8562110755403153       0.011893809121881354
0.005135480240288039      0.8538148682177648       0.012490664904653248
0.01741999239651595       0.8517832877344372       0.01129303650467727
0.029293016864195987      0.8496725700376476       0.008559119784119973
0.03840613270730462       0.845472922507332        0.005860773346646143
0.045059598316923785      0.8426642026602564       0.00326744413921166
0.806400350286031         0.2176813480127749       0.006303925422109175
0.8056508169247099        0.21051137245276094      0.0035264001799703223
0.7928685780679872        0.28127570589368384      0.012125959646270619
0.8011677496057523        0.2678898853116232       0.013971591956593577
0.8042564612077249        0.2525720167964839       0.014207721758780061
0.805880698331291         0.23973718434060226      0.012572278333748665
0.8075301662393789        0.22752350234201485      0.009309692880485816
0.7818024239809047        0.280745269471978        0.013429844434953167
0.7729019517661931        0.2975317784807668       0.006796218112774016
0.7635473918042566        0.3033203621562536       0.0037320224718858193
0.7760620104343992        0.2901180902272484       0.010262555031953278
0.5505788496194548        -0.7311392947336239      0.0028789889299753926
0.5544481033423063        -0.7234234774373515      0.001613501330467369
0.5446850407298383        -0.7379894477938641      0.0037825525014900494
0.5360294510339646        -0.7467463007723423      0.0036990237000944443
0.5256393685427022        -0.7488950061426906      0.003034646611604096
0.5167239618600101        -0.7508030722186493      0.0016335989963986428
-0.8749960845459848       0.26839645643098303      0.0029747457446235082
-0.8737839626717827       0.25935032344330966      0.001608719118536029
-0.8751689615081585       0.2799585031369959       0.003790155179342766
-0.8700876387380667       0.28999670321857773      0.0037871493595798486
-0.8632014618813679       0.29749703195592103      0.003014386005786311
-0.8593522181572799       0.3036390338611328       0.0016477250627343443
-0.04087307916021085      0.8360246165708128       0.006548143314635028
-0.04886205873294254      0.8313082104975533       0.0034585015966677813
-0.033270217793414554     0.8388921201119075       0.009155546597135964
-0.020966669379184445     0.841390532406168        0.012422303560208592
-0.007199762666609497     0.8448416392083327       0.013952889784196208
0.008394350839034644      0.8430092639707386       0.014188156412100583
0.0210125016442115        0.8406101763952921       0.012558854099815789
0.03308190328205318       0.8384236313141548       0.009315283883506949
0.04206754118303842       0.8342449025580384       0.0063406352662341405
0.04873011593815282       0.8312649088213631       0.0035393620180820934
-0.04410025261594979      0.8267497717769798       0.006865444257135394
-0.05253736050386463      0.8199108660244411       0.0037244968912879756
0.7956980197730685        0.20981349520508913      0.00680600239819125
0.7959531137857729        0.2034859217793073       0.0037911840040147824
0.7980424987309316        0.2201571729467054       0.009946512620661293
0.7878631814510965        0.26915811456084726      0.015735401103075766
0.7937190812285684        0.2578436056009034       0.01620425973416535
0.7937659707666259        0.24533881668532947      0.01616289797413378
0.796247495200938         0.23246949134312136      0.013796459154993628
0.7760280376003061        0.26957122450257953      0.017366780962290107
0.7620523330315634        0.2984843234832958       0.006703471257625056
0.751572483942971         0.3032884715721556       0.004005136468515923
0.7699218366726033        0.28150421557644134      0.014374869310525784
0.7637769814054385        0.2918018914871195       0.010271422312457664
0.5477799653819916        -0.720652032075463       0.0031864714094032806
0.5506663491080199        -0.7120602184361721      0.0018702127902453943
0.5405185715477913        -0.7280031790313846      0.00465079138956549
0.5350131369624709        -0.7354956683079661      0.004834382117160537
0.5257751214569089        -0.7386416222373585      0.004716065134779706
0.5148151954178534        -0.7423318800820699      0.003336728968886364
0.5070784235419937        -0.7437044944744012      0.001889546669216004
-0.8655608302757484       0.2613571069488105       0.003446949042818307
-0.8640564091296544       0.25236591859039303      0.0018588542062448151
-0.8656127215423418       0.27101837251802885      0.0045774766253883145
-0.8647189615463594       0.28122384774879755      0.004857165043718391
-0.8587877553737742       0.28908653797737494      0.004696887561300275
-0.851246540465092        0.2969905452069953       0.0036396791194021993
-0.8473758033307662       0.3035426775632502       0.0019132647114559792
-0.03564253106700624      0.8278467735429818       0.010423774769309481
-0.025177442502181433     0.8300279029695459       0.013550673137933067
-0.012063991312743456     0.8323059868932167       0.015832545823478372
1.104666763153838E-4      0.8344820330738999       0.016217533950298676
0.011813149912136773      0.8309783299612202       0.016132019206086697
0.024799653027594827      0.8293826000634993       0.013787229414309618
0.03609018445685843       0.8262817039163939       0.01056516865477391
0.04624428948167561       0.8213128869791577       0.006914257226954659
0.05240887463135854       0.8198684232977207       0.003809227405518514
-0.048565674484594576     0.814940295145012        0.007055285984073013
-0.056215704791244665     0.808514870373183        0.003991281903337469
-0.04074320682714242      0.8166593844936069       0.010600635596591636
0.785908602743295         0.2028300959778387       0.0073593670919704325
0.7862568266534987        0.19645918481878352      0.004056847825277093
0.788648296408354         0.21271740500491804      0.010489663403170145
0.7879913168968347        0.2236219852790221       0.014179594531105571
0.7817173009999849        0.25503591812070026      0.018707464894328747
0.7842419777464785        0.23867284862074473      0.01795648197903951
0.7703444413031876        0.2598988371941406       0.020270379153553335
0.7641853478968333        0.27100241099962397      0.01866484981390468
0.7497290834803573        0.2985747656871763       0.007125662082885296
0.7395974775567954        0.3032595935270627       0.00427968957333045
0.7518681928780084        0.29217747949406764      0.010818861896926638
0.7581087824678799        0.28219321855068213      0.015274617388337608
0.7377793174891331        0.29862611203005857      0.0075531079727205385
0.7276223650531262        0.3032350378182285       0.004554399182733117
0.543700406997488         -0.7087439250080225      0.0037362925701396334
0.5468926198846198        -0.7006948773277479      0.002131440042047966
0.5371859841957561        -0.7166847730063265      0.005447327050878655
0.5278684523972361        -0.7260578582710634      0.006184331878393311
0.5152851243872262        -0.7323230198480198      0.005438804339384815
0.5049929395740438        -0.7347175026227253      0.003949048672877661
0.4974283263775879        -0.7366131595135866      0.0021489026717869115
-0.8554264996423004       0.2541797648441468       0.00401795075510577
-0.8543284837441385       0.24538285468890472      0.002115469905894108
-0.8558150728578559       0.2633039129125572       0.005371698122452444
-0.8537506006502769       0.2772140584973388       0.006189161577864143
-0.8470258853650486       0.289115663900499        0.005544943662080137
-0.8402003658468389       0.2973224551609061       0.004029099202125747
-0.8353997877620478       0.3034614202585435       0.0021817996924837118
-0.029690987503138373     0.8187268453350376       0.014521914416655688
-0.016225362145471        0.8207938246424948       0.017548755453194818
-6.558060558727878E-4     0.8225573689175956       0.018649272541347708
0.015156055619319982      0.8202627352588793       0.01785065057437774
0.02911960978747673       0.8183075569694392       0.014801113369699104
0.04122810997931186       0.8160186456140744       0.010517425346082977
0.05046626069655571       0.8093987436335043       0.007235129353808983
0.05609447099837665       0.8084743281033456       0.004076962165828207
-0.033741742203297356     0.8073923432629018       0.015602768369490469
-0.052659828832236265     0.8025854286860765       0.007535801235956389
-0.059894650527994794     0.7971192259549527       0.0042604093237989735
-0.04549449844893604      0.8044012244028429       0.011062694523368853
0.7767699906777775        0.19671706219469082      0.008086283144477539
0.7765593288467845        0.18943440089285904      0.004326217063282939
0.7788833293994214        0.20568696426588765      0.011297821786910342
0.7779535846712837        0.21681721228553028      0.015547837503677274
0.7758198828350378        0.23002983651595477      0.019175898702340818
0.7258197198405522        0.29870567459248504      0.007957642209162447
0.7156471953653091        0.30321565939912937      0.004828117938931822
0.7704230312672157        0.2450110974923599       0.02161768497387909
0.7593684887515975        0.25887353485543935      0.022461272382678563
0.7527453392508225        0.2710195345623267       0.020262470335980356
0.7399153636286491        0.29250413767747935      0.011366423928074241
0.7462577492484619        0.28266109814669327      0.016223730885215056
0.7278967706683936        0.29282402014503434      0.011894859306269621
0.766619691759902         0.18838813321088194      0.008115490827657406
0.7668610007023285        0.1824106085908061       0.004598954004335971
0.539880665450977         -0.6968013070488114      0.004217104256938352
0.5431224023944307        -0.6893286911879463      0.0023980934310771033
0.5341727922755406        -0.7043849898142026      0.006132824879274351
0.5260835642147013        -0.712386572764667       0.007472442960464956
0.5157042959160482        -0.7199512245657753      0.007535760177552408
0.5051693694933332        -0.7252809920298505      0.0062542300104992885
0.49461898532509413       -0.7278281761805412      0.004292191130912285
0.48777696276720967       -0.7295239793263802      0.002413103489760651
-0.8460768054617896       0.24771398300714498      0.00459332109875992
-0.8445986995540484       0.23840197699919635      0.002379442034520899
-0.8460373711140796       0.2557629405814255       0.0061430837316858375
-0.8441119108186701       0.26696049236020813      0.00750273922569483
-0.8404986150186238       0.27923893842355746      0.007533491657365663
-0.8349083511235952       0.2897025396235208       0.006290740829890523
-0.8289768449765487       0.2968113497663886       0.004673335784937441
-0.8234240021838075       0.3033913081715506       0.0024530656029445757
0.05430921678138077       0.7979755265643037       0.007639411829069634